459
Q:\Lene\Nanobelts\rung12.log	Energy: -19673591.3926226
C        -12.62164        5.43859       -3.44762
C        -12.85418        4.81904       -4.73377
C        -12.59106        5.79798       -5.66764
H        -12.64306        5.73337       -6.75299
C        -12.15118        6.95778       -4.93746
C        -11.61026        8.09581       -5.52552
C        -10.92171        9.07090       -4.81267
C        -10.09557       10.08493       -5.41380
H        -10.00732       10.25586       -6.48518
C         -9.42780       10.71278       -4.38448
C         -9.91894       10.09566       -3.17171
C         -9.53654       10.56123       -1.90740
C        -10.16854       10.09688       -0.74758
C         -9.93479       10.71494        0.53954
C        -10.79843       10.08789        1.41147
H        -10.93050       10.25961        2.47822
C        -11.48481        9.07311        0.65529
C        -12.30400        8.09836        1.21414
C        -12.71277        6.95941        0.52929
C        -13.29109        5.79895        1.15523
H        -13.56261        5.73407        2.20731
C        -13.35721        4.81953        0.18804
C        -12.86877        5.43957       -1.02408
C        -12.89593        4.76471       -2.25047
N        -12.19000        6.72552       -3.57524
N        -10.81209        9.09992       -3.43493
N        -11.09692        9.10115       -0.67097
N        -12.47332        6.72708       -0.81217
Ni       -11.66014        7.92352       -2.12510
H        -11.62679        8.16964       -6.61393
H        -12.54173        8.17311        2.27632
C         -7.91903       12.09417       -2.96648
C         -8.40683       11.73270       -4.27979
C         -7.67965       12.49751       -5.16609
H         -7.73939       12.51957       -6.25273
C         -6.73571       13.25170       -4.38349
C         -5.69497       14.00181       -4.91982
C         -4.62537       14.47259       -4.16666
C         -3.39753       14.97450       -4.72618
H         -3.22142       15.13302       -5.78860
C         -2.52111       15.13702       -3.67518
C         -3.27006       14.78325       -2.48888
C         -2.72468       14.93338       -1.20802
C         -3.51939       14.78391       -0.06477
C         -3.02753       15.13833        1.24889
C         -4.09960       14.97647        2.09960
H         -4.14341       15.13561        3.17553
C         -5.18789       14.47433        1.30218
C         -6.38854       14.00407        1.82194
C         -7.29849       13.25375        1.08535
C         -8.38216       12.50020        1.65972
H         -8.66209       12.52305        2.71138
C         -8.91371       11.73476        0.64433
C         -8.16853       12.09518       -0.54220
C         -8.50944       11.58769       -1.80210
N         -6.90519       13.00336       -3.03434
N         -4.53524       14.37436       -2.79081
N         -4.81952       14.37522       -0.02652
N         -7.18964       13.00440       -0.26987
Ni        -5.87248       13.70698       -1.53143
H         -5.65665       14.12794       -6.00285
H         -6.57161       14.13093        2.88999
C         -0.54589       15.51583       -2.20900
C         -1.13070       15.51104       -3.53227
C         -0.10820       15.85944       -4.38812
H         -0.13442       15.96367       -5.47131
C          1.07465       16.00579       -3.58084
C          2.35757       16.16754       -4.09217
C          3.50949       16.00633       -3.33055
C          4.83201       15.86042       -3.88025
H          5.07808       15.96492       -4.93542
C          5.65898       15.51190       -2.83436
C          4.81707       15.51625       -1.65773
C          5.34736       15.30954       -0.37833
C          4.56783       15.51596        0.76641
C          5.15273       15.51131        2.08974
C          4.13031       15.85991        2.94552
H          4.15656       15.96432        4.02870
C          2.94732       16.00615        2.13825
C          1.66457       16.16784        2.64956
C          0.51246       16.00643        1.88792
C         -0.80997       15.86061        2.43767
H         -1.05599       15.96517        3.49284
C         -1.63704       15.51213        1.39179
C         -0.79519       15.51635        0.21518
C         -1.32554       15.30963       -1.06422
N          0.78602       15.80541       -2.24400
N          3.52016       15.80569       -1.96291
N          3.23598       15.80557        0.80139
N          0.50180       15.80574        0.52036
Ni         2.01100       15.82613       -0.72130
H          2.46809       16.31345       -5.16773
H          1.55402       16.31386        3.72509
C          7.54100       14.78311       -1.37776
C          7.04938       15.13772       -2.69144
C          8.12143       14.97528       -3.54210
H          8.16535       15.13425       -4.61805
C          9.20933       14.47243       -2.74462
C         10.40957       14.00062       -3.26448
C         11.31802       13.24869       -2.52798
C         12.39988       12.49238       -3.10253
H         12.67968       12.51451       -4.15423
C         12.92939       11.72544       -2.08733
C         12.18538       12.08787       -0.90057
C         12.52516       11.57961        0.35918
C         11.93626       12.08764        1.52361
C         12.42333       11.72496        2.83682
C         11.69825       12.49164        3.72324
H         11.75822       12.51354        4.80988
C         10.75582       13.24800        2.94079
C          9.71642       13.99968        3.47719
C          8.64703       14.47158        2.72411
C          7.41960       14.97426        3.28365
H          7.24364       15.13299        4.34605
C          6.54308       15.13700        2.23266
C          7.29174       14.78271        1.04643
C          6.74640       14.93298       -0.23454
N          8.84096       14.37366       -1.41603
N         11.20877       12.99951       -1.17273
N         10.92461       12.99914        1.59159
N          8.55672       14.37318        1.34833
Ni         9.89301       13.70421        0.08884
H         10.59276       14.12722       -4.33253
H          9.67844       14.12603        4.56021
C         14.17926       10.08335       -0.69586
C         13.94708       10.70219       -1.98284
C         14.80739       10.07143       -2.85538
H         14.93908       10.24216       -3.92232
C         15.48983        9.05380       -2.09965
C         16.30267        8.07437       -2.65943
C         16.70612        6.93342       -1.97485
C         17.27511        5.76925       -2.60211
H         17.54271        5.70272       -3.65512
C         17.33869        4.78979       -1.63470
C         16.85837        5.41354       -0.42083
C         16.88322        4.74015        0.80666
C         16.61026        5.41386        2.00347
C         16.83469        4.79044        3.28965
C         16.57588        5.76997        4.22389
H         16.62436        5.70365        5.30929
C         16.14550        6.93386        3.49406
C         15.61098        8.07464        4.08238
C         14.92836        9.05378        3.36916
C         14.10629       10.07116        3.97046
H         14.01836       10.24187        5.04190
C         13.44114       10.70184        2.94132
C         13.93021       10.08319        1.72835
C         13.54929       10.55010        0.46435
N         15.10333        9.08379       -0.77287
N         16.46925        6.70297       -0.63265
N         16.18591        6.70320        2.13176
N         14.81954        9.08377        1.99151
Ni        15.66231        7.90375        0.68126
H         16.53887        8.14731       -3.72208
H         15.62646        8.14765        5.17084
C         17.58601        2.67486       -0.34601
C         17.70995        3.39181       -1.59655
C         18.15307        2.46175       -2.51193
H         18.36634        2.59835       -3.57057
C         18.22784        1.20240       -1.81846
C         18.45210       -0.02175       -2.43850
C         18.22458       -1.24526       -1.81837
C         18.14645       -2.50446       -2.51174
H         18.35937       -2.64171       -3.57036
C         17.70085       -3.43326       -1.59629
C         17.57880       -2.71588       -0.34580
C         17.24800       -3.37358        0.84534
C         17.33082       -2.71540        2.07852
C         17.19713       -3.43227        3.32809
C         17.44877       -2.50321        4.31442
H         17.44318       -2.64008        5.39427
C         17.66590       -1.24430        3.65073
C         17.76354       -0.02058        4.30362
C         17.66922        1.20335        3.65063
C         17.45550        2.46289        4.31423
H         17.45029        2.59986        5.39408
C         17.20635        3.39255        3.32784
C         17.33808        2.67523        2.07832
C         17.25700        3.33353        0.84509
N         17.89023        1.35326       -0.48658
N         17.88655       -1.39511       -0.48647
N         17.60413       -1.39462        2.27805
N         17.60784        1.35374        2.27794
Ni        17.76776       -0.02071        0.89783
H         18.70726       -0.02214       -3.49926
H         17.79899       -0.02059        5.39407
C         16.84385       -5.45261       -0.42042
C         17.32585       -4.83025       -1.63434
C         17.25968       -5.80961       -2.60167
H         17.52748       -5.74387       -3.65468
C         16.68759       -6.97221       -1.97433
C         16.28114       -8.11215       -2.65883
C         15.46572       -9.08939       -2.09899
C         14.78068      -10.10532       -2.85465
H         14.91195      -10.27648       -3.92157
C         13.91872      -10.73378       -1.98208
C         14.15246      -10.11543       -0.69515
C         13.52124      -10.58044        0.46508
C         13.90333      -10.11440        1.72906
C         13.41261      -10.73166        2.94206
C         14.07935      -10.10260        3.97117
H         13.99093      -10.27298        5.04262
C         14.90407       -9.08742        3.36980
C         15.58923       -8.11001        4.08296
C         16.12680       -6.97071        3.49456
C         16.56025       -5.80791        4.22431
H         16.60887       -5.74163        5.30971
C         16.82172       -4.82915        3.29000
C         16.59567       -5.45208        2.00387
C         16.87046       -4.77919        0.80700
N         16.45130       -6.74102       -0.63216
N         15.07911       -9.11826       -0.77221
N         14.79523       -9.11726        1.99216
N         16.16787       -6.74027        2.13225
Ni        15.64114       -7.93957        0.68184
H         16.51718       -8.18580       -3.72146
H         15.60447       -8.18296        5.17143
C         12.15345      -12.11485       -0.89974
C         12.89841      -11.75442       -2.08650
C         12.36699      -12.52011       -3.10165
H         12.64677      -12.54304       -4.15334
C         11.28320      -13.27361       -2.52707
C         10.37290      -14.02335       -3.26352
C          9.17149      -14.49215       -2.74365
C          8.08240      -14.99243       -3.54113
H          8.12597      -15.15163       -4.61705
C          7.00993      -15.15219       -2.69048
C          7.50235      -14.79863       -1.37683
C          6.70735      -14.94643       -0.23362
C          7.25299      -14.79732        1.04735
C          6.50342      -15.14964        2.23360
C          7.38028      -14.98890        3.28460
H          7.20388      -15.14706        4.34702
C          8.60896      -14.48929        2.72505
C          9.67948      -14.01996        3.47813
C         10.72078      -13.27094        2.94168
C         11.66510      -12.51690        3.72410
H         11.72496      -12.53884        4.81074
C         12.39217      -11.75217        2.83763
C         11.90423      -12.11374        1.52443
C         12.49447      -11.60734        0.35998
N         11.17453      -13.02403       -1.17184
N          8.80331      -14.39234       -1.41509
N          8.51895      -14.39084        1.34925
N         10.89026      -13.02266        1.59247
Ni         9.85696      -13.72532        0.08976
H         10.55582      -14.15051       -4.33155
H          9.64113      -14.14608        4.56116
C          4.77667      -15.52524       -1.65683
C          5.61864      -15.52304       -2.83342
C          4.79089      -15.86970       -3.87930
H          5.03675      -15.97491       -4.93445
C          3.46800      -16.01238       -3.32965
C          2.31574      -16.17096       -4.09130
C          1.03318      -16.00614       -3.58005
C         -0.14929      -15.85712       -4.38740
H         -0.17570      -15.96141       -5.47058
C         -1.17101      -15.50626       -3.53164
C         -0.58628      -15.51227       -2.20834
C         -1.36551      -15.30414       -1.06361
C         -0.83569      -15.51195        0.21584
C         -1.67759      -15.50567        1.39240
C         -0.85136      -15.85590        2.43836
H         -1.09767      -15.95977        3.49354
C          0.47075      -16.00483        1.88869
C          1.62244      -16.16881        2.65040
C          2.90559      -16.01019        2.13913
C          4.08889      -15.86666        2.94644
H          4.11485      -15.97099        4.02963
C          5.11217      -15.52062        2.09066
C          4.52733      -15.52405        0.76730
C          5.30741      -15.31964       -0.37743
N          3.47909      -15.81162       -1.96203
N          0.74495      -15.80494       -2.24325
N          0.46062      -15.80429        0.52110
N          3.19479      -15.81048        0.80226
Ni         1.96982      -15.82835       -0.72048
H          2.42597      -16.31725       -5.16684
H          1.51151      -16.31443        3.72595
C         -3.30874      -14.77342       -2.48842
C         -2.56055      -15.12903       -3.67465
C         -3.43653      -14.96456       -4.72572
H         -3.26073      -15.12356       -5.78811
C         -4.66323      -14.45975       -4.16630
C         -5.73168      -13.98651       -4.91956
C         -6.77068      -13.23392       -4.38334
C         -7.71278      -12.47753       -5.16604
H         -7.77248      -12.49949       -6.25269
C         -8.43821      -11.71096       -4.27983
C         -7.95137      -12.07354       -2.96647
C         -8.54068      -11.56564       -1.80216
C         -8.20108      -12.07390       -0.54221
C         -8.94552      -11.71172        0.64425
C         -8.41585      -12.47836        1.65971
H         -8.69591      -12.50052        2.71134
C         -7.33386      -13.23444        1.08545
C         -6.42568      -13.98678        1.82215
C         -5.22607      -14.45979        1.30250
C         -4.13897      -14.96434        2.10003
H         -4.18320      -15.12330        3.17596
C         -3.06721      -15.12871        1.24939
C         -3.55819      -14.77328       -0.06433
C         -2.76376      -14.92469       -1.20752
N         -4.57295      -14.36163       -2.79046
N         -6.93968      -12.98513       -3.03422
N         -7.22433      -12.98538       -0.26977
N         -4.85739      -14.36163       -0.02618
Ni        -5.90871      -13.69107       -1.53120
H         -5.69358      -14.11280       -6.00258
H         -6.60912      -14.11317        2.89019
C         -9.94648      -10.07028       -3.17192
C         -9.45672      -10.68860       -4.38463
C        -10.12287      -10.05913       -5.41402
H        -10.03491      -10.23027       -6.48540
C        -10.94657       -9.04306       -4.81299
C        -11.63255       -8.06620       -5.52592
C        -12.17058       -6.92678       -4.93790
C        -12.60722       -5.76575       -5.66808
H        -12.65883       -5.70092       -6.75343
C        -12.86782       -4.78614       -4.73419
C        -12.63722       -5.40644       -3.44805
C        -12.90994       -4.73194       -2.25089
C        -12.88480       -5.40693       -1.02453
C        -13.37174       -4.78564        0.18755
C        -13.30830       -5.76525        1.15474
H        -13.57968       -5.69963        2.20683
C        -12.73295       -6.92720        0.52884
C        -12.32715       -8.06720        1.21370
C        -11.51032       -9.04397        0.65493
C        -10.82645      -10.06041        1.41117
H        -10.95907      -10.23182        2.47790
C         -9.96420      -10.68950        0.53934
C        -10.19633      -10.07088       -0.74780
C         -9.56533      -10.53674       -1.90757
N        -10.83717       -9.07236       -3.43524
N        -12.20901       -6.69451       -3.57567
N        -12.49276       -6.69547       -0.81261
N        -11.12233       -9.07294       -0.67130
Ni       -11.68244       -7.89390       -2.12548
H        -11.64911       -8.13997       -6.61433
H        -12.56519       -8.14138        2.27586
C        -13.37549       -2.67224       -3.52278
C        -13.24749       -3.39068       -4.77222
C        -13.50995       -2.46430       -5.75799
H        -13.51162       -2.60270       -6.83767
C        -13.72643       -1.20501       -5.09435
C        -13.82826        0.01789       -5.74793
C        -13.72291        1.24040       -5.09416
C        -13.50295        2.49914       -5.75768
H        -13.50437        2.63768       -6.83734
C        -13.23773        3.42466       -4.77184
C        -13.36755        2.70645       -3.52245
C        -13.27627        3.35962       -2.28827
C        -13.60872        2.70134       -1.09590
C        -13.73734        3.42440        0.14841
C        -14.19913        2.50500        1.06452
H        -14.42526        2.65224        2.11741
C        -14.27504        1.23881        0.38210
C        -14.52048        0.01856        1.02544
C        -14.27958       -1.20234        0.38158
C        -14.20734       -2.46879        1.06402
H        -14.43346       -2.61532        2.11701
C        -13.74812       -3.38948        0.14790
C        -13.61725       -2.66672       -1.09633
C        -13.28639       -3.32582       -2.28866
N        -13.65480       -1.35306       -3.72221
N        -13.65066        1.38809       -3.72201
N        -13.92163        1.38197       -0.94978
N        -13.92635       -1.34645       -0.95017
Ni       -13.81000        0.01768       -2.33803
H        -13.87166        0.01805       -6.83805
C        -14.94903        0.01812        2.46608
C        -13.98303        0.02136        3.49605
C        -16.32923        0.01268        2.77192
C        -14.40748        0.01908        4.84526
C        -16.73500        0.00870        4.12238
C        -15.78186        0.01170        5.16510
C        -13.37212        0.02304        5.93347
C        -18.19886        0.00180        4.45521
C        -12.87120       -1.18888        6.44269
C        -12.88515        1.22798        6.44888
C        -18.89268       -1.20454        4.59019
C        -18.89275        1.21241        4.63462
C        -11.90164       -1.20932        7.45239
H        -13.26347       -2.11834        6.02985
C        -11.91006        1.25561        7.46422
H        -13.28323        2.16215        6.04573
C        -20.26573       -1.23474        4.90063
H        -18.34239       -2.13763        4.44729
C        -20.25803        1.23002        4.94434
H        -18.33567        2.14298        4.52420
C        -11.43838        0.02762        7.94458
C        -11.33324       -2.51973        8.03445
C        -11.40645        2.61090        8.00121
C        -20.91949       -0.00815        5.07152
C        -20.98697       -2.59124        5.03674
C        -21.04906        2.53876        5.14577
H        -10.68364        0.02122        8.72983
C        -11.62507       -2.57853        9.55196
C        -11.95399       -3.76653        7.37865
C         -9.80477       -2.56519        7.80358
C        -10.77836        3.42031        6.84281
C        -10.34355        2.44677        9.10262
C        -12.59600        3.40173        8.59365
H        -21.98189       -0.00401        5.31161
C        -22.47891       -2.42987        5.37994
C        -20.88051       -3.36475        3.70186
C        -20.32053       -3.41653        6.16202
C        -20.16437        3.78701        4.97524
C        -21.64813        2.56477        6.57125
C        -22.19262        2.61376        4.10739
H        -11.22253       -3.50875        9.98539
H        -11.16821       -1.73485       10.09085
H        -12.70901       -2.55288        9.74587
H        -13.04361       -3.81063        7.53042
H        -11.75704       -3.80147        6.29594
H        -11.52017       -4.67565        7.82370
H         -9.29102       -1.72113        8.28784
H         -9.38083       -3.49527        8.21638
H         -9.56746       -2.52984        6.72866
H         -9.92422        2.88152        6.40334
H        -11.50280        3.61329        6.03728
H        -10.41568        4.39554        7.20699
H        -10.01541        3.43778        9.45313
H        -10.73615        1.90111        9.97465
H         -9.45219        1.91366        8.73727
H        -13.05989        2.85006        9.42651
H        -12.25626        4.37755        8.97789
H        -13.37685        3.59204        7.84204
H        -22.62608       -1.90877        6.33867
H        -23.02194       -1.87343        4.60037
H        -22.94975       -3.42151        5.46680
H        -21.35222       -2.80118        2.88150
H        -19.83393       -3.55435        3.41973
H        -21.38711       -4.34060        3.78087
H        -20.38579       -2.89061        7.12764
H        -20.82038       -4.39302        6.27073
H        -19.25674       -3.60779        5.95534
H        -19.34153        3.80991        5.70648
H        -19.72740        3.84615        3.96646
H        -20.76856        4.69493        5.12789
H        -22.21948        3.49380        6.73137
H        -22.33087        1.71953        6.74551
H        -20.85413        2.51701        7.33315
H        -22.89102        1.76889        4.20424
H        -22.77150        3.54262        4.23898
H        -21.79370        2.60311        3.08085
C        -16.25689        0.00586        6.60242
H        -16.88158        0.88767        6.81573
H        -16.89144       -0.87132        6.80483
H        -15.42158       -0.00230        7.31250
C        -17.37917        0.00885        1.68095
H        -18.00626       -0.89470        1.73964
H        -18.06378        0.86424        1.78942
H        -16.93835        0.05044        0.67765
C        -12.50061        0.02826        3.18617
H        -12.01181        0.91850        3.61210
H        -11.99819       -0.84099        3.63828
H        -12.30017        0.01419        2.10845
